
FAST Summary File

Predictions were generated on 19-Nov-2025 at 13:24:54 using OpenFAST, compiled on Apr 10 2025 at 10:24:39 as a 64-bit application using single precision at commit v4.0.3-2-g5f4d8a79
  run with
    NWTC Subroutine Library
    ElastoDyn [not called]
    InflowWind
    ElastoDyn
    AeroDyn
    ServoDyn
    SeaState
    HydroDyn
    MoorDyn (v2.2.2, 2024-01-16)
    Simplified-ElastoDyn (unknown version, unknown date) [not called]
    InflowWind
    AeroDyn
    AeroDisk (unknown version, unknown date) [not called]
    ServoDyn
    HydroDyn
    SubDyn (unknown version, unknown date) [not called]
    ExtPtfm_MCKF (unknown version, unknown date) [not called]
    MAP (unknown version, unknown date) [not called]
    FEAMooring (unknown version, unknown date) [not called]
    MoorDyn (v2.2.2, 2024-01-16)
    OrcaFlexInterface (unknown version, unknown date) [not called]
    IceFloe (unknown version, unknown date) [not called]
    IceDyn (unknown version, unknown date) [not called]
Description from the FAST input file: 
  IEA 15 MW offshore reference model on UMaine VolturnUS-S semi-submersible floating platform

Interpolation order for input/output time histories: 2 (quadratic)
Number of correction iterations:  1
Number of rows in Jacobian matrix used for coupling ElastoDyn to HydroDyn:     12


   Requested Time Steps  
  -------------------------------------------------
  Component          Time Step (s)    Subcycles (-)
  -----------------  ---------------  -------------
  FAST (glue code)    1.000E-02
  InflowWind          1.000E-02              1
  ElastoDyn           1.000E-02              1
  AeroDyn             1.000E-02              1
  ServoDyn            1.000E-02              1
  SeaState            1.000E-02              1
  HydroDyn            1.000E-02              1
  MoorDyn             1.000E-02              1
  FAST output files   1.000E-02              1


   Requested Channels in FAST Output File(s)  
  --------------------------------------------
  Number  Name                  Units                 Generated by
  ------  --------------------  --------------------  ------------
       1  Time                  (s)                   OpenFAST
       2  Wind1VelX             (m/s)                 InflowWind
       3  Wind1VelY             (m/s)                 InflowWind
       4  Wind1VelZ             (m/s)                 InflowWind
       5  PtfmHeave             (m)                   ElastoDyn
       6  PtfmPitch             (deg)                 ElastoDyn
       7  PtfmRoll              (deg)                 ElastoDyn
       8  PtfmSurge             (m)                   ElastoDyn
       9  PtfmSway              (m)                   ElastoDyn
      10  PtfmYaw               (deg)                 ElastoDyn
      11  TwrBsFxt              (kN)                  ElastoDyn
      12  TwrBsFyt              (kN)                  ElastoDyn
      13  TwrBsFzt              (kN)                  ElastoDyn
      14  TwrBsMxt              (kN-m)                ElastoDyn
      15  TwrBsMyt              (kN-m)                ElastoDyn
      16  TwrBsMzt              (kN-m)                ElastoDyn
      17  NcIMUTAxs             (m/s^2)               ElastoDyn
      18  NcIMUTAys             (m/s^2)               ElastoDyn
      19  NcIMUTAzs             (m/s^2)               ElastoDyn
      20  RotSpeed              (rpm)                 ElastoDyn
      21  BlPitch1              (deg)                 ElastoDyn
      22  RtAeroFxh             (N)                   AeroDyn
      23  RtAeroFyh             (N)                   AeroDyn
      24  RtAeroFzh             (N)                   AeroDyn
      25  RtAeroMxh             (N-m)                 AeroDyn
      26  RtAeroMyh             (N-m)                 AeroDyn
      27  RtAeroMzh             (N-m)                 AeroDyn
      28  RtVAvgxh              (m/s)                 AeroDyn
      29  RtFldCp               (-)                   AeroDyn
      30  RtFldCt               (-)                   AeroDyn
      31  RtArea                (m^2)                 AeroDyn
      32  RtSpeed               (rpm)                 AeroDyn
      33  RtTSR                 (-)                   AeroDyn
      34  GenPwr                (kW)                  ServoDyn
      35  GenTq                 (kN-m)                ServoDyn
      36  Wave1Elev             (m)                   SeaState
      37  HydroFxi              (N)                   HydroDyn
      38  HydroFyi              (N)                   HydroDyn
      39  HydroFzi              (N)                   HydroDyn
      40  HydroMxi              (N-m)                 HydroDyn
      41  HydroMyi              (N-m)                 HydroDyn
      42  HydroMzi              (N-m)                 HydroDyn
      43  FAIRTEN1              (N)                   MoorDyn
      44  FAIRTEN2              (N)                   MoorDyn
      45  FAIRTEN3              (N)                   MoorDyn
      46  FAIRTEN4              (N)                   MoorDyn
      47  FAIRTEN5              (N)                   MoorDyn
      48  FAIRTEN6              (N)                   MoorDyn
      49  ANCHTEN1              (N)                   MoorDyn
      50  ANCHTEN2              (N)                   MoorDyn
      51  ANCHTEN3              (N)                   MoorDyn
      52  ANCHTEN4              (N)                   MoorDyn
      53  ANCHTEN5              (N)                   MoorDyn
      54  ANCHTEN6              (N)                   MoorDyn
